6
Energy = -78.06483503801
C     0.6665949    0.0000000    0.0000001 
C    -0.6665949   -0.0000000   -0.0000002
H     1.2325118   -0.9243604   -0.0000000
H     1.2325118    0.9243604   -0.0000000
H    -1.2325118    0.9243604    0.0000000
H    -1.2325118   -0.9243604    0.0000000


